version 2
run General-0-20160304-09:14:39-2590
attr configname General
attr datetime 20160304-09:14:39
attr experiment General
attr inifile omnetpp.ini
attr iterationvars ""
attr iterationvars2 $repetition=0
attr measurement ""
attr network LayerNetwork
attr processid 2590
attr repetition 0
attr replication #0
attr resultdir results
attr runnumber 0
attr seedset 0

vector 2  LayerNetwork.n2.dl  "Delay Vector"  ETV
vector 1  LayerNetwork.n1.dl  "RTT of Packets vector"  ETV
1	66	1.004	1.004
1	87	3.008	1.004
1	118	7.012	3.004
1	139	9.016	1.004
1	165	13.02	2.004
1	186	15.024	1.004
1	212	18.028	2.004
1	228	20.032	1.004
1	249	23.036	2.004
1	270	26.04	1.004
1	291	30.044	2.004
1	327	34.048	3.004
1	363	40.052	4.004
1	379	42.056	1.004
1	400	46.06	2.004
1	431	51.064	4.004
1	467	56.068	3.004
1	493	59.072	2.004
1	539	67.076	6.004
1	555	69.08	1.004
1	576	72.084	2.004
1	597	76.088	2.004
1	623	80.092	3.004
1	644	83.096	2.004
1	665	85.1	1.004
1	681	87.104	1.004
1	702	90.108	1.004
1	728	93.112	2.004
1	749	95.116	1.004
1	770	97.12	1.004
1	791	100.124	1.004
1	812	103.128	1.004
1	828	105.132	1.004
1	859	110.136	3.004
1	895	116.14	5.004
1	931	121.144	4.004
1	957	124.148	2.004
1	973	126.152	1.004
1	1004	131.156	3.004
1	1040	136.16	4.004
1	1061	139.164	2.004
1	1087	143.168	2.004
1	1103	145.172	1.004
1	1124	148.176	1.004
1	1140	150.18	1.004
1	1156	152.184	1.004
1	1192	157.188	4.004
1	1228	161.192	3.004
1	1269	167.196	5.004
1	1290	169.2	1.004
2	60	1.002	1.002
2	67	2.002	2.002
2	81	3.006	2.002
2	88	4.006	3.002
2	112	7.01	4.002
2	119	8.01	5.002
2	133	9.014	2.002
2	140	11.014	4.002
2	159	13.018	4.002
2	166	14.018	5.002
2	180	15.022	2.002
2	187	16.022	3.002
2	206	18.026	3.002
2	222	20.03	2.002
2	243	23.034	3.002
2	250	25.034	5.002
2	264	26.038	3.002
2	285	30.042	4.002
2	292	31.042	5.002
2	306	32.046	2.002
2	321	34.046	4.002
2	328	35.046	5.002
2	357	40.05	6.002
2	373	42.054	2.002
2	394	46.058	4.002
2	425	51.062	5.002
2	432	53.062	7.002
2	446	54.066	3.002
2	461	56.066	5.002
2	477	58.07	2.002
2	487	59.07	3.002
2	494	60.07	4.002
2	533	67.074	8.002
2	549	69.078	2.002
2	570	72.082	3.002
2	591	76.086	4.002
2	617	80.09	4.002
2	638	83.094	3.002
2	645	84.094	4.002
2	659	85.098	2.002
2	675	87.102	2.002
2	682	88.102	3.002
2	696	90.106	3.002
2	703	91.106	4.002
2	722	93.11	3.002
2	729	94.11	4.002
2	743	95.114	2.002
2	750	96.114	3.002
2	764	97.118	2.002
2	771	98.118	3.002
2	785	100.122	3.002
2	792	101.122	4.002
2	806	103.126	3.002
2	822	105.13	2.002
2	829	106.13	3.002
2	853	110.134	5.002
2	889	116.138	6.002
2	905	118.142	2.002
2	925	121.142	5.002
2	932	122.142	6.002
2	951	124.146	3.002
2	967	126.15	2.002
2	974	127.15	3.002
2	998	131.154	5.002
2	1005	132.154	6.002
2	1034	136.158	5.002
2	1055	139.162	3.002
2	1062	141.162	5.002
2	1081	143.166	4.002
2	1097	145.17	2.002
2	1104	146.17	3.002
2	1118	148.174	3.002
2	1134	150.178	2.002
2	1150	152.182	2.002
2	1157	153.182	3.002
2	1186	157.186	5.002
2	1193	158.186	6.002
2	1207	159.19	2.002
2	1222	161.19	4.002
2	1229	162.19	5.002
2	1263	167.194	6.002
2	1270	168.194	7.002
2	1284	169.198	2.002
2	1291	170.198	3.002
